[Molden Format]
made by pyscf v[1.6.1-1]
[Atoms] (AU)
H   1   1     0.00000000000000     0.00000000000000     2.83458918684759
H   2   1     0.00000000000000     0.00000000000000     5.66917837369519
H   3   1     0.00000000000000     0.00000000000000     8.50376756054278
H   4   1     0.00000000000000     0.00000000000000    11.33835674739037
[GTO]
1 0
 s    3 1.00
            3.42525091    0.15432897070298
            0.62391373    0.53532814243847
             0.1688554    0.44463454202535

2 0
 s    3 1.00
            3.42525091    0.15432897070298
            0.62391373    0.53532814243847
             0.1688554    0.44463454202535

3 0
 s    3 1.00
            3.42525091    0.15432897070298
            0.62391373    0.53532814243847
             0.1688554    0.44463454202535

4 0
 s    3 1.00
            3.42525091    0.15432897070298
            0.62391373    0.53532814243847
             0.1688554    0.44463454202535

[5d]
[9g]


[MO]
 Sym= A
 Ene=               0
 Spin= Alpha
 Occup=    1.00000
   1      0.34443354002708
   2      0.48057287779346
   3      0.48057287779346
   4      0.34443354002709
 Sym= A
 Ene=               1
 Spin= Alpha
 Occup=    1.00000
   1      0.53384124225419
   2      0.39332547935636
   3     -0.39332547935636
   4     -0.53384124225419
 Sym= A
 Ene=               2
 Spin= Alpha
 Occup=    0.00000
   1      0.64274996474993
   2     -0.43858745808742
   3     -0.43858745808742
   4      0.64274996474993
 Sym= A
 Ene=               3
 Spin= Alpha
 Occup=    0.00000
   1      0.50668985159308
   2     -0.75752636006895
   3      0.75752636006895
   4     -0.50668985159308
